# vtk DataFile Version 4.0
vtk output
ASCII
DATASET POLYDATA
POINTS 4374 float
-30 -15 -15.2209 -30 -15.2399 -15 -29.638 -15 -15 
-33 -15 -15.0029 -33 -15.0037 -15 -33.0037 -15 -15 
30 -12 -15.4253 30 -12.5553 -15 32.3527 -12 -15 
29.2973 -12 -15 -27 -12 -15.1161 -27 -12.1949 -15 
-26.8794 -12 -15 -30 -12 -16.3711 -33 -12 -15.6774 
-33.7304 -12 -15 33 -9 -15.5976 33 -11.5004 -15 
33.5976 -9 -15 30 -9 -16.2337 27.6074 -9 -15 
-27 -9 -15.1161 -26.8681 -9 -15 -30 -9 -16.2337 
-33 -9 -15.1161 -33.1161 -9 -15 33 -6.49963 -15 
32.4544 -6 -15 30 -6 -15.5092 29.069 -6 -15 
-27 -8.75582 -15 -30 -6.10984 -15 -33 -8.79189 -15 
30 -5.10042 -15 18 3 -15.4026 18 2.25738 -15 
19.878 3 -15 15 3 -15.6774 15 1.78468 -15 
12 3 -15.7653 12 1.86774 -15 9.88556 3 -15 
-12 3 -15.5121 -12 2.46902 -15 -10.4255 3 -15 
-14.1961 3 -15 24 6 -15.19 24 5.49836 -15 
24.6941 6 -15 21 6 -15.3606 21 4.3572 -15 
18 6 -15.6017 15 6 -15.9588 12 6 -16.3638 
9 4.0972 -15 9 6 -15.5976 8.40242 6 -15 
-12 6 -16.1638 -9.24981 6 -15 -15 4.89364 -15 
-15 6 -15.1319 -15.1497 6 -15 24 7.65656 -15 
22.7459 9 -15 21 9 -15.2333 18 9 -15.2333 
15 9 -15.6979 12 9 -16.1061 9.26916 9 -15 
9 8.50037 -15 -12 9 -15.3145 -11.6074 9 -15 
-13.1269 9 -15 -15 6.57331 -15 21 11.2147 -15 
20.2147 12 -15 18 12 -15.2333 15 12 -15.4566 
12 12 -15.0032 11.9958 12 -15 -12 9.61587 -15 
18 12.5293 -15 15 12.8516 -15 12 12.0043 -15 
-33 -18 -12.3372 -33 -18.3372 -12 -31.6068 -18 -12 
-33.5115 -18 -12 33 -15 -12.6317 33 -15.8067 -12 
33.6872 -15 -12 30 -15 -12.9352 30 -16.0606 -12 
28.2971 -15 -12 -27 -15 -13.0875 -27 -16.1073 -12 
-25.7125 -15 -12 -30 -17.6552 -12 -35.6632 -15 -12 
33 -12 -14.808 34.457 -12 -12 27 -12 -13.3038 
27 -13.8698 -12 25.5405 -12 -12 -24.5377 -12 -12 
-34.9412 -12 -12 34.5 -9 -12 27 -9 -14.5047 
24.6859 -9 -12 18 -9 -12.5092 18 -9.85062 -12 
19.2401 -9 -12 15 -9 -12.2131 15 -9.31073 -12 
14.6893 -9 -12 -15 -9 -12.2131 -15 -9.34979 -12 
-14.6502 -9 -12 -18 -9 -12.8996 -18 -10.5 -12 
-21 -9 -12.3076 -21 -9.59757 -12 -24 -9 -12.0211 
-24 -9.09953 -12 -34.3259 -9 -12 33 -6 -14.7967 
34.4114 -6 -12 27 -6 -13.6603 24.3712 -6 -12 
21 -6 -12.5092 21 -7.24007 -12 23.1601 -6 -12 
18 -6 -13.3711 15 -6 -13.0588 13.0139 -6 -12 
-15 -6 -12.8996 -13.5 -6 -12 -18 -6 -13.3711 
-21 -6 -12.5092 -22.8978 -6 -12 -24 -8.85088 -12 
-27 -6 -13.3888 -24.6979 -6 -12 -30 -6 -14.9091 
-33 -6 -12.5674 -33.3477 -6 -12 33 -3 -12.9841 
33.9384 -3 -12 30 -3 -13.6236 27 -3 -12.5377 
25.3982 -3 -12 21 -3 -12.8345 23.0714 -3 -12 
18 -3 -13.5 15 -3 -13.3711 12 -4.36865 -12 
12 -3 -12.5092 11.2397 -3 -12 -15 -3 -12.3076 
-14.4024 -3 -12 -18 -3 -12.4253 -18.8541 -3 -12 
-21 -5.01003 -12 -27 -4.34517 -12 -30 -3.64671 -12 
-33 -5.46417 -12 33 0 -12.3024 33.3302 0 -12 
30 0 -12.7868 27.989 0 -12 27 -1.26053 -12 
21 0 -12.5928 21.8048 0 -12 18 0 -13.9408 
15 0 -14.1004 12 0 -13.6618 9.82584 0 -12 
-15 -1.20308 -12 -18 -2.17852 -12 33 1.35812 -12 
31.7807 3 -12 30 3 -12.6137 27.9563 3 -12 
21 1.17992 -12 20.0384 3 -12 9 3 -14.3088 
9 1.07224 -12 7.99923 3 -12 -9 3 -13.4768 
-9 2.35426 -12 -8.55989 3 -12 -12 0.587616 -12 
-15 3 -14.4243 -15 0.64518 -12 -15.9754 3 -12 
30 5.24157 -12 27 5.69524 -12 27.4057 6 -12 
27 6 -12.1468 24 6 -14.6805 26.9401 6 -12 
21 6 -14.5775 18 4.97855 -12 18 6 -13.7588 
16.7184 6 -12 7.5 6 -12 -9 6 -14.6881 
-8.10042 6 -12 -15.3092 6 -12 27 6.14153 -12 
21 9 -14.7667 18 9 -14.7549 15 7.99186 -12 
15 9 -13.3294 14.3863 9 -12 9 9 -14.6573 
8.16548 9 -12 -9 7.62951 -12 -10.7243 9 -12 
-13.0837 9 -12 -15 6.59993 -12 18 12 -14.7667 
15 12 -14.2027 12.2333 12 -12 11.8317 12 -12 
9 10.164 -12 -12 9.78465 -12 12 12.1493 -12 
21 -33 -9.04689 21 -33.0695 -9 21.1492 -33 -9 
19.5 -33 -9 -12 -33 -9.42529 -12 -33.5553 -9 
-11.2973 -33 -9 -15 -33 -9.89958 -15 -34.2936 -9 
-18 -33 -9.89958 -18 -34.4284 -9 -21 -33 -9.89958 
-21 -34.4284 -9 -24 -33 -9.30757 -24 -33.494 -9 
-24.4685 -33 -9 24 -30 -9.50916 24 -31.1489 -9 
24.725 -30 -9 21 -30 -10.0869 18 -32.8317 -9 
18 -30 -9.69577 15 -30 -9.08913 15 -30.7041 -9 
14.8531 -30 -9 -12 -30 -10.2337 -9.60739 -30 -9 
-15 -30 -10.3711 -18 -30 -10.0588 -21 -30 -9.89958 
-24 -30 -9.21315 -24.2956 -30 -9 24 -27 -9.83452 
25.0637 -27 -9 21 -27 -10.2074 18 -27 -9.18163 
17.5536 -27 -9 15 -29.7667 -9 -12 -27 -9.50916 
-11.01 -27 -9 -15 -27 -9.50916 -16.3687 -27 -9 
-18 -28.0139 -9 -21 -28.7064 -9 -24 -29.7044 -9 
24 -24 -9.09239 24.1205 -24 -9 21 -24 -9.89958 
18 -24 -9.50916 16.7599 -24 -9 -12 -26.1004 -9 
-15 -26.1004 -9 24 -23.4812 -9 21.4684 -21 -9 
21 -21 -9.08032 18 -21 -9.31836 16.4269 -21 -9 
-30 -21 -9.23994 -30 -21.2209 -9 -29.4678 -21 -9 
-33 -21 -9.00375 -33 -21.0029 -9 -33.0037 -21 -9 
36 -18 -9.23994 36 -18.3849 -9 36.2209 -18 -9 
33 -18 -10.6762 33 -20.7599 -9 30 -18 -10.5 
30 -19.9394 -9 27 -18 -10.0262 27 -19.5 -9 
24 -18 -9.89958 24 -20.1377 -9 21 -18 -9.5263 
19.5 -18 -9 18 -19.8978 -9 -21 -18 -9.31836 
-21 -18.4685 -9 -20.3021 -18 -9 -24 -18 -10.0262 
-24 -19.3101 -9 -27 -18 -10.5 -27 -19.813 -9 
-30 -18 -11.6078 -35.4955 -18 -9 36 -15 -9.16583 
36.1119 -15 -9 27 -15 -11.3581 24 -15 -10.6289 
21 -15 -10.3259 18 -16.5 -9 18 -15 -9.5263 
16.9298 -15 -9 -15 -15 -9.11186 -15 -15.2002 -9 
-14.7998 -15 -9 -18 -15 -9.92744 -18 -16.5 -9 
-21 -15 -10.3259 -24 -15 -10.9992 -35.6389 -15 -9 
36 -14.7831 -9 34.5 -12 -9 24 -12 -10.9992 
21 -12 -10.6289 18 -12 -10.8134 15 -13.4157 -9 
15 -12 -9.97127 13.7125 -12 -9 -15 -12 -10.3851 
-13.0215 -12 -9 -18 -12 -11.1004 -21 -12 -10.9412 
-24 -12 -11.5215 -34.0637 -12 -9 34.0637 -9 -9 
24 -9 -11.4372 21 -9 -11.3042 12 -9 -9.97127 
12 -10.2875 -9 10.2757 -9 -9 -9 -9 -9.21315 
-9 -9.37115 -9 -8.16007 -9 -9 -12 -9 -10.3851 
-12 -10.9785 -9 -33.4026 -9 -9 34.5454 -6 -9 
24 -6 -11.7791 12 -6 -11.3688 9 -7.91627 -9 
9 -6 -10.0262 6 -6 -9.30757 6 -6.69792 -9 
4.69477 -6 -9 -3 -6 -9.08913 -3 -6.5293 -9 
-2.58275 -6 -9 -4.5 -6 -9 -9 -6 -9.89958 
-6.23332 -6 -9 -12 -6 -11.1004 -24 -6 -11.6552 
-33 -6 -10.5303 -31.621 -6 -9 -33 -7.44177 -9 
35.0266 -3 -9 24 -3 -11.435 9 -3 -10.5 
6.49402 -3 -9 6 -4.5 -9 -3 -5.56242 -9 
-9 -3 -9.89958 -6.69793 -3 -9 -12 -3 -10.9412 
-21 -3 -10.8295 -24 -3 -9.59277 -27 -4.18697 -9 
-24.9 -3 -9 -30 -5.26762 -9 34.1489 0 -9 
30 0 -10.5 31.6982 0 -9 30 -2.13699 -9 
27 -1.92103 -9 24 -0.585838 -9 23.4191 0 -9 
9 0 -11.1359 7.32641 0 -9 -9 0 -9.97535 
-7.86587 0 -9 -12 0 -11.4824 -15 0 -11.7601 
-18 0 -10.4595 -19.5744 0 -9 -21 -1.10047 -9 
-24 -2.55807 -9 33 3 -10.7807 33.7369 3 -9 
30 3 -10.8849 31.8849 3 -9 21 2.11011 -9 
20.1101 3 -9 7.45698 3 -9 -8.16611 3 -9 
-18 1.67268 -9 -17.0847 3 -9 33 6 -9.19493 
33.1455 6 -9 32.5852 6 -9 27 6 -11.9673 
18 4.8711 -9 16.5677 6 -9 7.5 6 -9 
-7.72011 6 -9 -15.5482 6 -9 33 6.40751 -9 
15 7.33971 -9 13.3128 9 -9 8.32261 9 -9 
-9 8.44772 -9 -12 8.98026 -9 -12 9 -9.07456 
-15 6.65829 -9 12 10.2174 -9 12 12 -11.8531 
9 9.75752 -9 -18 -39 -6.11608 -18 -39.1161 -6 
-17.7046 -39 -6 -21 -39 -6.11608 -21 -39.1161 -6 
-21.2954 -39 -6 24 -36 -6.54816 24 -36.6583 -6 
24.8238 -36 -6 21 -36 -7.18883 21 -37.3861 -6 
18 -36 -7.16256 18 -37.3747 -6 15 -36 -6.78909 
15 -36.9343 -6 13.5 -36 -6 -12 -36 -6.9352 
-12 -37.0178 -6 -10.405 -36 -6 -15 -36 -7.66183 
-15 -37.9052 -6 -18 -36 -7.97378 -21 -36 -7.97378 
-24 -37.861 -6 -24 -36 -7.5 -26.9694 -36 -6 
27 -33 -6.23994 27 -33.3849 -6 27.2209 -33 -6 
24 -33 -8.17967 18 -33 -8.95311 15 -33 -8.70203 
12 -34.595 -6 12 -33 -6.9352 10.9822 -33 -6 
-9 -33 -7.30378 -9 -34.7658 -6 -7.7269 -33 -6 
-27 -33 -7.06366 -27 -35.948 -6 -27.8345 -33 -6 
27 -30 -7.06366 27.8345 -30 -6 12 -30 -7.33817 
10.5 -30 -6 -9 -30 -8.50467 -6.95159 -30 -6 
-27 -30 -6.42106 -27.3448 -30 -6 27 -27 -6.59277 
27.4803 -27 -6 15 -27 -8.10042 12 -27 -7.18657 
9.96156 -27 -6 -9 -27 -7.8711 -6.58088 -27 -6 
-18 -27 -8.36877 -21 -27 -7.66183 -24 -27 -6.75294 
-25.0139 -27 -6 -27 -29.4024 -6 27 -24.5188 -6 
26.8909 -24 -6 15 -24 -8.30423 12 -24 -7.5 
9 -25.6306 -6 9 -24 -6.69577 7.5 -24 -6 
-6 -24 -6.69577 -6 -25.9116 -6 -4.5 -24 -6 
-9 -24 -7.5 -12 -24 -7.94123 -15 -24 -7.94123 
-18 -24 -7.33591 -21 -24 -6.39285 -22.4817 -24 -6 
-24 -25.1799 -6 36 -21 -6.5674 36 -21.4429 -6 
36.3356 -21 -6 33 -21 -8.78799 33 -23.537 -6 
30 -21 -7.98976 30 -23.0729 -6 27 -21 -7.74005 
27 -23.8422 -6 24 -21 -8.55808 15 -21 -8.70203 
12 -21 -7.79261 9 -21 -7.37111 6 -22.5 -6 
6 -21 -6.69577 4.5 -21 -6 -3 -21 -6.50916 
-3 -22.2401 -6 -1.97108 -21 -6 -6 -21 -7.37111 
-9 -21 -7.5 -12 -21 -7.5 -15 -21 -7.37111 
-18 -21 -7.18657 -21 -21 -7.33817 -24 -23.3361 -6 
-24 -21 -7.5 -27 -21 -7.861 -27 -22.8926 -6 
-30 -23.091 -6 -33 -22.0215 -6 -33.7304 -21 -6 
37.218 -18 -6 18 -18 -8.30416 15 -18 -7.81117 
12 -18 -7.62889 9 -18 -7.5 6 -18 -7.37111 
3 -19.5 -6 3 -18 -6.69577 0 -18 -6.18163 
0 -18.4464 -6 -3 -18 -7.05877 -6 -18 -7.5 
-9 -18 -7.5 -12 -18 -7.62889 -15 -18 -7.64981 
-18 -18 -7.80464 -33.6872 -18 -6 36.6188 -15 -6 
15 -15 -8.04511 12 -15 -7.33591 9 -15 -7.37111 
6 -15 -7.5 3 -15 -7.37111 0 -15 -7.20739 
-3 -15 -7.37111 -6 -15 -7.5 -9 -15 -7.37111 
-12 -15 -7.64981 -33 -15 -7.30411 -30.2426 -15 -6 
-33 -17.1494 -6 36 -13.8552 -6 33 -12.9727 -6 
33 -12 -7.02145 30.4368 -12 -6 12 -12 -7.67258 
9 -12 -7.33591 6 -12 -7.5 3 -12 -7.5 
0 -12 -7.62889 -3 -12 -7.79261 -6 -12 -7.7663 
-9 -12 -7.64981 -12 -12 -8.10824 -30 -12 -6.59758 
-29.4024 -12 -6 -30 -14.5004 -6 -33 -12 -8.1388 
33 -9 -7.72587 30 -11.5004 -6 30 -9 -6.59758 
29.4024 -9 -6 9 -9 -8.36877 6 -9 -8.10042 
3 -9 -7.94123 0 -9 -8.10042 -3 -9 -8.60715 
-6 -9 -8.49084 -30 -9 -6.97922 -29.0742 -9 -6 
-33 -9 -8.6118 33 -6 -7.5 30 -6 -7.16714 
28.7367 -6 -6 3 -6 -8.60715 0 -6 -8.49084 
-6 -6 -8.91087 -30 -6 -8.48861 -27.7355 -6 -6 
36 -3 -6.82828 36 -4.65656 -6 36.19 -3 -6 
33 -3 -7.75436 35.6547 -3 -6 30 -3 -8.69085 
27 -3.76025 -6 27 -3 -7.24007 26.4518 -3 -6 
6 -3 -8.69243 3 -3 -7.81343 0 -3 -7.81117 
-3 -3 -8.48691 -6 -3 -8.69243 -25.2799 -3 -6 
-27 -5.17416 -6 36 0 -6.32672 36.1319 0 -6 
35.6733 0 -6 33 0 -7.85108 24.5482 0 -6 
24 0 -7.65923 6 0 -7.72011 3 0 -6.50916 
0 0 -6.06358 -3 0 -6.78909 -6 0 -7.72011 
[...]
POINT_DATA 4374
SCALARS scalars unsigned_short
LOOKUP_TABLE default
1 1 1 1 1 1 1 1 1 
1 1 1 1 1 1 1 1 1 
1 1 1 1 1 1 1 1 1 
1 1 1 1 1 1 1 1 1 
1 1 1 1 1 1 1 1 1 
1 1 1 1 1 1 1 1 1 
1 1 1 1 1 1 1 1 1 
1 1 1 1 1 1 1 1 1 
1 1 1 1 1 1 1 1 1 
1 1 1 1 1 1 1 1 1 
1 1 1 1 1 1 1 1 1 
1 1 1 1 1 1 1 1 1 
1 1 1 1 1 1 1 1 1 
1 1 1 1 1 1 1 1 1 
1 1 1 1 1 1 1 1 1 
1 1 1 1 1 1 1 1 1 
1 1 1 1 1 1 1 1 1 
1 1 1 1 1 1 1 1 1 
1 1 1 1 1 1 1 1 1 
1 1 1 1 1 1 1 1 1 
1 1 1 1 1 1 1 1 1 
1 1 1 1 1 1 1 1 1 
1 1 1 1 1 1 1 1 1 
1 1 1 1 1 1 1 1 1 
1 1 1 1 1 1 1 1 1 
1 1 1 1 1 1 1 1 1 
1 1 1 1 1 1 1 1 1 
1 1 1 1 1 1 1 1 1 
1 1 1 1 1 1 1 1 1 
1 1 1 1 1 1 1 1 1 
1 1 1 1 1 1 1 1 1 
1 1 1 1 1 1 1 1 1 
1 1 1 1 1 1 1 1 1 
1 1 1 1 1 1 1 1 1 
1 1 1 1 1 1 1 1 1 
1 1 1 1 1 1 1 1 1 
1 1 1 1 1 1 1 1 1 
1 1 1 1 1 1 1 1 1 
1 1 1 1 1 1 1 1 1 
1 1 1 1 1 1 1 1 1 
1 1 1 1 1 1 1 1 1 
1 1 1 1 1 1 1 1 1 
1 1 1 1 1 1 1 1 1 
1 1 1 1 1 1 1 1 1 
1 1 1 1 1 1 1 1 1 
1 1 1 1 1 1 1 1 1 
1 1 1 1 1 1 1 1 1 
1 1 1 1 1 1 1 1 1 
1 1 1 1 1 1 1 1 1 
1 1 1 1 1 1 1 1 1 
1 1 1 1 1 1 1 1 1 
1 1 1 1 1 1 1 1 1 
1 1 1 1 1 1 1 1 1 
1 1 1 1 1 1 1 1 1 
1 1 1 1 1 1 1 1 1 
1 1 1 1 1 1 1 1 1 
1 1 1 1 1 1 1 1 1 
1 1 1 1 1 1 1 1 1 
1 1 1 1 1 1 1 1 1 
1 1 1 1 1 1 1 1 1 
1 1 1 1 1 1 1 1 1 
1 1 1 1 1 1 1 1 1 
1 1 1 1 1 1 1 1 1 
1 1 1 1 1 1 1 1 1 
1 1 1 1 1 1 1 1 1 
1 1 1 1 1 1 1 1 1 
1 1 1 1 1 1 1 1 1 
1 1 1 1 1 1 1 1 1 
1 1 1 1 1 1 1 1 1 
1 1 1 1 1 1 1 1 1 
1 1 1 1 1 1 1 1 1 
1 1 1 1 1 1 1 1 1 
1 1 1 1 1 1 1 1 1 
1 1 1 1 1 1 1 1 1 
1 1 1 1 1 1 1 1 1 
1 1 1 1 1 1 1 1 1 
1 1 1 1 1 1 1 1 1 
1 1 1 1 1 1 1 1 1 
1 1 1 1 1 1 1 1 1 
1 1 1 1 1 1 1 1 1 
1 1 1 1 1 1 1 1 1 
1 1 1 1 1 1 1 1 1 
1 1 1 1 1 1 1 1 1 
1 1 1 1 1 1 1 1 1 
1 1 1 1 1 1 1 1 1 
1 1 1 1 1 1 1 1 1 
1 1 1 1 1 1 1 1 1 
1 1 1 1 1 1 1 1 1 
1 1 1 1 1 1 1 1 1 
1 1 1 1 1 1 1 1 1 
1 1 1 1 1 1 1 1 1 
1 1 1 1 1 1 1 1 1 
1 1 1 1 1 1 1 1 1 
1 1 1 1 1 1 1 1 1 
1 1 1 1 1 1 1 1 1 
1 1 1 1 1 1 1 1 1 
1 1 1 1 1 1 1 1 1 
1 1 1 1 1 1 1 1 1 
1 1 1 1 1 1 1 1 1 
1 1 1 1 1 1 1 1 1 
1 1 1 1 1 1 1 1 1 
1 1 1 1 1 1 1 1 1 
1 1 1 1 1 1 1 1 1 
1 1 1 1 1 1 1 1 1 
1 1 1 1 1 1 1 1 1 
1 1 1 1 1 1 1 1 1 
1 1 1 1 1 1 1 1 1 
1 1 1 1 1 1 1 1 1 
1 1 1 1 1 1 1 1 1 
1 1 1 1 1 1 1 1 1 
1 1 1 1 1 1 1 1 1 
1 1 1 1 1 1 1 1 1 
1 1 1 1 1 1 1 1 1 
1 1 1 1 1 1 1 1 1 
1 1 1 1 1 1 1 1 1 
1 1 1 1 1 1 1 1 1 
1 1 1 1 1 1 1 1 1 
1 1 1 1 1 1 1 1 1 
1 1 1 1 1 1 1 1 1 
1 1 1 1 1 1 1 1 1 
1 1 1 1 1 1 1 1 1 
1 1 1 1 1 1 1 1 1 
1 1 1 1 1 1 1 1 1 
1 1 1 1 1 1 1 1 1 
1 1 1 1 1 1 1 1 1 
1 1 1 1 1 1 1 1 1 
1 1 1 1 1 1 1 1 1 
1 1 1 1 1 1 1 1 1 
1 1 1 1 1 1 1 1 1 
1 1 1 1 1 1 1 1 1 
1 1 1 1 1 1 1 1 1 
1 1 1 1 1 1 1 1 1 
1 1 1 1 1 1 1 1 1 
1 1 1 1 1 1 1 1 1 
1 1 1 1 1 1 1 1 1 
1 1 1 1 1 1 1 1 1 
1 1 1 1 1 1 1 1 1 
1 1 1 1 1 1 1 1 1 
1 1 1 1 1 1 1 1 1 
1 1 1 1 1 1 1 1 1 
1 1 1 1 1 1 1 1 1 
1 1 1 1 1 1 1 1 1 
1 1 1 1 1 1 1 1 1 
1 1 1 1 1 1 1 1 1 
1 1 1 1 1 1 1 1 1 
1 1 1 1 1 1 1 1 1 
1 1 1 1 1 1 1 1 1 
1 1 1 1 1 1 1 1 1 
1 1 1 1 1 1 1 1 1 
1 1 1 1 1 1 1 1 1 
1 1 1 1 1 1 1 1 1 
1 1 1 1 1 1 1 1 1 
1 1 1 1 1 1 1 1 1 
1 1 1 1 1 1 1 1 1 
1 1 1 1 1 1 1 1 1 
1 1 1 1 1 1 1 1 1 
1 1 1 1 1 1 1 1 1 
1 1 1 1 1 1 1 1 1 
1 1 1 1 1 1 1 1 1 
1 1 1 1 1 1 1 1 1 
1 1 1 1 1 1 1 1 1 
1 1 1 1 1 1 1 1 1 
1 1 1 1 1 1 1 1 1 
1 1 1 1 1 1 1 1 1 
1 1 1 1 1 1 1 1 1 
1 1 1 1 1 1 1 1 1 
1 1 1 1 1 1 1 1 1 
1 1 1 1 1 1 1 1 1 
1 1 1 1 1 1 1 1 1 
1 1 1 1 1 1 1 1 1 
1 1 1 1 1 1 1 1 1 
1 1 1 1 1 1 1 1 1 
1 1 1 1 1 1 1 1 1 
1 1 1 1 1 1 1 1 1 
1 1 1 1 1 1 1 1 1 
1 1 1 1 1 1 1 1 1 
1 1 1 1 1 1 1 1 1 
1 1 1 1 1 1 1 1 1 
1 1 1 1 1 1 1 1 1 
1 1 1 1 1 1 1 1 1 
1 1 1 1 1 1 1 1 1 
1 1 1 1 1 1 1 1 1 
1 1 1 1 1 1 1 1 1 
1 1 1 1 1 1 1 1 1 
1 1 1 1 1 1 1 1 1 
1 1 1 1 1 1 1 1 1 
1 1 1 1 1 1 1 1 1 
1 1 1 1 1 1 1 1 1 
1 1 1 1 1 1 1 1 1 
1 1 1 1 1 1 1 1 1 
1 1 1 1 1 1 1 1 1 
1 1 1 1 1 1 1 1 1 
1 1 1 1 1 1 1 1 1 
1 1 1 1 1 1 1 1 1 
1 1 1 1 1 1 1 1 1 
1 1 1 1 1 1 1 1 1 
1 1 1 1 1 1 1 1 1 
1 1 1 1 1 1 1 1 1 
1 1 1 1 1 1 1 1 1 
1 1 1 1 1 1 1 1 1 
1 1 1 1 1 1 1 1 1 
1 1 1 1 1 1 1 1 1 
1 1 1 1 1 1 1 1 1 
1 1 1 1 1 1 1 1 1 
1 1 1 1 1 1 1 1 1 
1 1 1 1 1 1 1 1 1 
1 1 1 1 1 1 1 1 1 
1 1 1 1 1 1 1 1 1 
1 1 1 1 1 1 1 1 1 
1 1 1 1 1 1 1 1 1 
1 1 1 1 1 1 1 1 1 
1 1 1 1 1 1 1 1 1 
1 1 1 1 1 1 1 1 1 
1 1 1 1 1 1 1 1 1 
1 1 1 1 1 1 1 1 1 
1 1 1 1 1 1 1 1 1 
1 1 1 1 1 1 1 1 1 
1 1 1 1 1 1 1 1 1 
1 1 1 1 1 1 1 1 1 
1 1 1 1 1 1 1 1 1 
1 1 1 1 1 1 1 1 1 
1 1 1 1 1 1 1 1 1 
1 1 1 1 1 1 1 1 1 
1 1 1 1 1 1 1 1 1 
1 1 1 1 1 1 1 1 1 
1 1 1 1 1 1 1 1 1 
1 1 1 1 1 1 1 1 1 
1 1 1 1 1 1 1 1 1 
1 1 1 1 1 1 1 1 1 
1 1 1 1 1 1 1 1 1 
1 1 1 1 1 1 1 1 1 
1 1 1 1 1 1 1 1 1 
1 1 1 1 1 1 1 1 1 
1 1 1 1 1 1 1 1 1 
1 1 1 1 1 1 1 1 1 
1 1 1 1 1 1 1 1 1 
1 1 1 1 1 1 1 1 1 
1 1 1 2 2 2 2 2 2 
2 2 2 2 2 2 2 2 2 
2 2 2 2 2 2 2 2 2 
2 2 2 2 2 2 2 2 2 
2 2 2 2 2 2 2 2 2 
2 2 2 2 2 2 2 2 2 
2 2 2 2 2 2 2 2 2 
2 2 2 2 2 2 2 2 2 
2 2 2 2 2 2 2 2 2 
2 2 2 2 2 2 2 2 2 
2 2 2 2 2 2 2 2 2 
2 2 2 2 2 2 2 2 2 
2 2 2 2 2 2 2 2 2 
2 2 2 2 2 2 2 2 2 
2 2 2 2 2 2 2 2 2 
2 2 2 2 2 2 2 2 2 
2 2 2 2 2 2 2 2 2 
2 2 2 2 2 2 2 2 2 
2 2 2 2 2 2 2 2 2 
2 2 2 2 2 2 2 2 2 
2 2 2 2 2 2 2 2 2 
2 2 2 2 2 2 2 2 2 
2 2 2 2 2 2 2 2 2 
2 2 2 2 2 2 2 2 2 
2 2 2 2 2 2 2 2 2 
2 2 2 2 2 2 2 2 2 
2 2 2 2 2 2 2 2 2 
2 2 2 2 2 2 2 2 2 
2 2 2 2 2 2 2 2 2 
2 2 2 2 2 2 2 2 2 
2 2 2 2 2 2 2 2 2 
2 2 2 2 2 2 2 2 2 
2 2 2 2 2 2 2 2 2 
2 2 2 2 2 2 2 2 2 
2 2 2 2 2 2 2 2 2 
2 2 2 2 2 2 2 2 2 
2 2 2 2 2 2 2 2 2 
2 2 2 2 2 2 2 2 2 
2 2 2 2 2 2 2 2 2 
2 2 2 2 2 2 2 2 2 
2 2 2 2 2 2 2 2 2 
2 2 2 2 2 2 2 2 2 
2 2 2 2 2 2 2 2 2 
2 2 2 2 2 2 2 2 2 
2 2 2 2 2 2 2 2 2 
2 2 2 2 2 2 2 2 2 
2 2 2 2 2 2 2 2 2 
2 2 2 2 2 2 2 2 2 
2 2 2 2 2 2 2 2 2 
2 2 2 2 2 2 2 2 2 
2 2 2 2 2 2 2 2 2 
2 2 2 2 2 2 2 2 2 
2 2 2 2 2 2 2 2 2 
2 2 2 2 2 2 2 2 2 
2 2 2 2 2 2 2 2 2 
2 2 2 2 2 2 2 2 2 
2 2 2 2 2 2 2 2 2 
2 2 2 2 2 2 2 2 2 
2 2 2 2 2 2 2 2 2 
2 2 2 2 2 2 3 3 3 
3 3 3 3 3 3 3 3 3 
3 3 3 3 3 3 3 3 3 
3 3 3 3 3 3 3 3 3 
3 3 3 3 3 3 3 3 3 
3 3 3 3 3 3 3 3 3 
3 3 3 3 3 3 3 3 3 
3 3 3 3 3 3 3 3 3 
3 3 3 3 3 3 3 3 3 
3 3 3 3 3 3 3 3 3 
3 3 3 3 3 3 3 3 3 
3 3 3 3 3 3 3 3 3 
3 3 3 3 3 3 3 3 3 
3 3 3 3 3 3 3 3 3 
3 3 3 3 3 3 3 3 3 
3 3 3 3 3 3 3 3 3 
3 3 3 3 3 3 3 3 3 
3 3 3 3 3 3 3 3 3 
3 3 3 3 3 3 3 3 3 
3 3 3 3 3 3 3 3 3 
3 3 3 3 3 3 3 3 3 
3 3 3 3 3 3 3 3 3 
3 3 3 3 3 3 3 3 3 
3 3 3 3 3 3 3 3 3 
3 3 3 3 3 3 3 3 3 
3 3 3 3 3 3 3 3 3 
3 3 3 3 3 3 3 3 3 
3 3 3 3 3 3 3 3 3 
3 3 3 3 3 3 3 3 3 
3 3 3 3 3 3 3 3 3 
3 3 3 3 3 3 3 3 3 
3 3 3 3 3 3 3 3 3 
3 3 3 3 3 3 3 3 3 
3 3 3 3 3 3 3 3 3 
3 3 3 3 3 3 3 3 3 
3 3 3 3 3 3 3 3 3 
3 3 3 3 3 3 3 3 3 
3 3 3 3 3 3 3 3 3 
3 3 3 3 3 3 3 3 3 
3 3 3 3 3 3 3 3 3 
3 3 3 3 3 3 3 3 3 
3 3 3 3 3 3 3 3 3 
3 3 3 3 3 3 3 3 3 
3 3 3 3 3 3 3 3 3 
3 3 3 3 3 3 3 3 3 
3 3 3 3 3 3 3 3 3 
3 3 3 3 3 3 3 3 3 
3 3 3 3 3 3 3 3 3 
3 3 3 3 3 3 3 3 3 
3 3 3 3 3 3 3 3 3 
3 3 3 3 3 3 3 3 3 
3 3 3 3 3 3 3 3 3 
3 3 3 3 3 3 3 3 3 
3 3 3 3 3 3 3 3 3 
3 3 3 3 3 3 3 3 3 
3 3 3 3 3 3 3 3 3 
3 3 3 3 3 3 3 3 3 
3 3 3 3 3 3 3 3 3 
3 3 3 3 3 3 3 3 3 
3 3 3 3 3 3 3 3 3 
3 3 3 3 3 3 3 3 3 
3 3 3 3 3 3 3 3 3 
3 3 3 3 3 3 3 3 3 
3 3 3 3 3 3 3 3 3 
3 3 3 3 3 3 3 3 3 
3 3 3 3 3 3 3 3 3 
3 3 3 3 3 3 3 3 3 
3 3 3 3 3 3 3 3 3 
3 3 3 3 3 3 3 3 3 
3 3 3 3 3 3 3 3 3 
3 3 3 3 3 3 3 3 3 
3 3 3 3 3 3 3 3 3 
3 3 3 3 3 3 3 3 3 
3 3 3 3 3 3 3 3 3 
3 3 3 3 3 3 3 3 3 
3 3 3 3 3 3 3 3 3 
3 3 3 3 3 3 3 3 3 
3 3 3 3 3 3 3 3 3 
3 3 3 3 3 3 3 3 3 
3 3 3 3 3 3 3 3 3 
3 3 3 3 3 3 3 3 3 
3 3 3 3 3 3 3 3 3 
3 3 3 3 3 3 3 3 3 
3 3 3 3 3 3 3 3 3 
3 3 3 3 3 3 3 3 3 
3 3 3 3 3 3 3 3 3 
3 3 3 3 3 3 3 3 3 
3 3 3 3 3 3 3 3 3 
3 3 3 3 3 3 3 3 3 
3 3 3 3 3 3 3 3 3 
3 3 3 3 3 3 3 3 3 
3 3 3 3 3 3 3 3 3 
3 3 3 3 3 3 3 3 3 
3 3 3 3 3 3 3 3 3 
3 3 4 4 4 4 4 4 4 
4 4 4 4 4 4 4 4 4 
4 4 4 4 4 4 4 4 4 
4 4 4 4 4 4 4 4 4 
4 4 4 4 4 4 4 4 4 
4 4 4 4 4 4 4 4 4 
4 4 4 4 4 4 4 4 4 
4 4 4 4 4 4 4 4 4 
4 4 4 4 4 4 4 4 4 
4 4 4 4 4 4 4 4 4 
4 4 4 4 4 4 4 4 4 
4 4 4 4 4 4 4 4 4 
4 4 4 4 4 4 4 4 4 
4 4 4 4 4 4 4 4 4 
4 4 4 4 4 4 4 4 4 
4 4 4 4 4 4 4 4 4 
4 4 4 4 4 4 4 4 4 
4 4 4 4 4 4 4 4 4 
4 4 4 4 4 4 4 4 4 
4 4 4 4 4 4 4 4 4 
4 4 4 4 4 4 4 4 4 
4 4 4 4 4 4 4 4 4 
4 4 4 4 4 4 4 4 4 
4 4 4 4 4 4 4 4 4 
4 4 4 4 4 4 4 4 4 
4 4 4 4 4 4 4 4 4 
4 4 4 4 4 4 4 4 4 
4 4 4 4 4 4 4 4 4 
4 4 4 4 4 4 4 4 4 
4 4 4 4 4 4 4 4 4 
4 4 4 4 4 4 4 4 4 
4 4 4 4 4 4 4 4 4 
4 4 4 4 4 4 4 4 4 
4 4 4 4 4 4 4 4 4 
4 4 4 4 4 4 4 4 4 
4 4 4 4 4 4 4 4 4 
4 4 4 4 4 4 4 4 4 
4 4 4 4 4 4 4 4 4 
4 4 4 4 4 4 4 4 4 
4 4 4 4 4 4 4 4 4 
4 4 4 4 4 4 4 4 4 
4 4 4 4 4 4 4 4 4 
4 4 4 4 4 4 4 4 4 
4 4 4 4 4 4 4 4 4 
4 4 4 4 4 4 4 4 4 
4 4 4 4 4 4 4 4 4 
4 4 4 4 4 4 4 4 4 
4 4 4 4 4 4 4 4 4 
4 4 4 4 4 4 4 4 4 
4 4 4 4 4 4 4 4 4 
4 4 4 4 4 4 4 4 4 
4 4 4 4 4 4 4 4 4 
4 4 4 4 4 4 4 4 4 
4 4 4 4 4 4 4 4 4 
4 4 4 4 4 4 4 4 4 
4 4 4 4 4 4 4 4 4 
4 4 4 4 4 4 4 4 4 
4 4 4 4 4 4 4 4 4 
4 4 4 4 4 4 4 4 4 
4 4 4 4 4 4 4 4 4 
4 4 4 4 4 4 4 4 4 
4 4 4 4 4 4 4 4 4 
4 4 4 4 4 4 4 4 4 
4 4 4 4 4 4 4 4 4 
4 4 4 4 4 4 4 4 4 
4 4 4 4 4 4 4 4 4 
4 4 4 4 4 4 4 4 4 
4 4 4 4 4 4 4 4 4 
4 4 4 4 4 4 4 4 4 
4 4 4 4 4 4 4 4 4 
4 4 4 4 4 4 4 4 4 
4 4 4 4 4 4 4 4 4 
4 4 4 4 4 4 4 4 4 
4 4 4 4 4 4 4 4 4 
4 4 4 4 4 4 4 4 4 
4 4 4 4 4 4 4 4 4 
4 4 4 4 4 4 4 4 4 
4 4 4 4 4 4 4 4 4 
4 4 4 4 4 4 4 4 4 
4 4 4 4 4 4 4 4 4 
4 4 4 4 4 4 4 4 4 
4 4 4 4 4 4 4 4 4 
4 4 4 4 4 4 4 4 4 
4 4 4 4 4 4 4 4 4 
4 4 4 4 4 4 4 4 4 
4 4 4 4 4 4 4 4 4 
4 4 4 4 4 4 4 4 4 
4 4 4 4 4 4 4 4 4 
4 4 4 4 4 4 4 4 4 
4 4 4 4 4 4 4 4 4 
4 4 4 4 4 4 4 4 4 
4 4 4 4 4 4 4 4 4 
4 4 4 4 4 4 4 4 4 
4 4 4 4 4 4 4 4 4 
4 4 4 4 4 4 4 4 4 
4 4 4 4 4 4 4 4 4 

NORMALS normals float
-0.223017 0.60723 0.762584 -0.227019 0.628991 0.743527 -0.265593 0.612933 0.74416 
0.379115 0.458647 0.803688 0.378964 0.459028 0.803542 0.379606 0.458529 0.803524 
0.188196 0.496339 0.847484 0.191566 0.542573 0.817873 -0.361672 0.475516 0.801921 
0.287885 0.503651 0.814529 -0.63743 0.243377 0.731061 -0.639683 0.263732 0.721977 
-0.647342 0.244085 0.72206 -0.0742785 0.160117 0.984299 0.581387 0.01803 0.813428 
0.704183 -0.00728958 0.709981 -0.610846 -0 0.791749 -0.542569 0.368426 0.754905 
-0.728281 -0 0.685279 0.136136 0.0108107 0.990631 0.584864 0.0325211 0.810479 
-0.609525 -0.20836 0.764896 -0.617291 -0.204952 0.75957 -0 -0.246706 0.969091 
0.649044 -0.332673 0.684157 0.664897 -0.333877 0.66816 -0.567932 -0.328367 0.754737 
-0.420818 -0.41708 0.805579 0.163551 -0.42247 0.891499 0.29164 -0.406052 0.866065 
-0.608031 -0.229121 0.760133 0.0365029 -0.603882 0.796237 0.651277 -0.349207 0.673716 
0.148647 -0.445303 0.882955 -0.189954 0.378484 0.905907 -0.185375 0.390142 0.901901 
-0.316727 0.559303 0.766071 -0.0674367 0.352705 0.933301 -0.0307945 0.398594 0.91661 
0.148709 0.445793 0.882697 0.188633 0.511456 0.83835 0.472813 0.504235 0.722631 
-0.0480074 0.594415 0.802724 -0.0576379 0.666804 0.743001 -0.351732 0.596912 0.721096 
0.265154 0.574394 0.774445 -0.514139 0.399763 0.758848 -0.505061 0.585411 0.634198 
-0.597188 0.246053 0.763429 -0.35514 0.42348 0.833391 -0.415119 0.678428 0.606145 
-0.269728 -0.0402494 0.962095 -0.218847 0.0189662 0.975575 0.0724626 0.0697806 0.994927 
0.636757 0.338591 0.692746 0.625842 0.0357813 0.779129 0.736069 0.0322885 0.676136 
-0.0552671 -0.0203907 0.998263 -0.6874 -0.230163 0.688844 0.686437 0.168105 0.707492 
0.772309 -0.0599925 0.632408 0.798493 -0.0797231 0.596701 -0.760549 -0.17779 0.624465 
-0.734544 -0.536964 0.414868 -0.551952 -0.593588 0.585664 -0.620331 -0.472076 0.626365 
-0.331949 -0.191407 0.923674 0.152899 -0.2728 0.949843 0.644591 -0.428865 0.632912 
0.683995 -0.354662 0.637469 -0.322276 -0.547805 0.772042 -0.404142 -0.592048 0.697244 
0.110242 -0.620624 0.77632 0.81135 -0.100643 0.575831 -0.580019 -0.814603 -0 
-0.547097 -0.837069 -0 -0.385178 -0.873789 0.296869 0.107228 -0.674936 0.730044 
0.493339 -0.661497 0.564836 0.4938 -0.661745 0.564141 -0.390566 -0.644495 0.657331 
-0.301785 -0.953376 -0 0.183877 -0.891152 0.414773 0.49353 -0.661926 0.564165 
0.161176 0.720441 0.674527 0.161151 0.723446 0.67131 -0.0440136 0.732208 0.679658 
0.247801 0.709738 0.659445 -0.405933 0.549772 0.730047 -0.359026 0.537481 0.76303 
-0.520104 0.454521 0.72312 0.177186 0.672856 0.718241 0.156996 0.65785 0.736604 
0.299852 0.568439 0.766137 -0.540312 0.544677 0.641397 -0.451399 0.581919 0.676468 
-0.510431 0.437144 0.740517 -0.260638 0.719523 0.643703 0.932623 0.0536276 0.356846 
-0.53699 0.429677 0.725961 -0.957602 0.12427 0.259913 0.613301 0.413151 0.673178 
0.47679 0.456964 0.750903 0.552876 0.305256 0.775336 -0.597435 0.197153 0.777304 
0.967536 -0.2427 0.0705069 -0.995699 -0.00909356 0.0922008 0.681567 0.0404383 0.730638 
0.529283 0.141901 0.836495 -0.142524 0.450031 0.881566 -0.104275 0.475226 0.873663 
-0.159581 0.427883 0.889635 0.345772 0.45236 0.822078 0.34681 0.473257 0.809784 
0.372864 0.455488 0.808395 -0.39154 0.39154 0.832702 -0.388005 0.409206 0.825835 
-0.409206 0.388005 0.825835 -0.0121542 0.391298 0.920184 -0.0331272 0.468712 0.88273 
0.152328 0.286882 0.945777 0.114931 0.313252 0.94269 -0.3324 0.0301493 0.942657 
-0.339614 0.0367824 0.939845 0.955229 -0.292612 0.0437733 -0.570957 -0.385005 0.725107 
-0.958717 -0.101584 0.265599 0.578985 -0.296103 0.759671 0.226513 -0.00737158 0.97398 
-0.291968 0.257847 0.921016 -0.256314 0.308296 0.91611 0.0236457 0.106498 0.994032 
-0.0934459 0.186892 0.977926 0.321747 0.206263 0.924086 0.458329 0.308477 0.833533 
-0.391298 0.0121542 0.920184 -0.474856 0.0330039 0.879445 0.0652211 -0.0750892 0.995042 
0.308506 -0.210346 0.927674 0.0788282 -0.282019 0.956165 -0.319531 0.013321 0.947482 
-0.483699 -0.5527 0.678645 -0.17283 -0.389398 0.904709 0.0408428 -0.624573 0.779898 
0.763096 -0.580495 0.284097 0.814217 -0.547312 0.193649 -0.627608 -0.372012 0.683898 
-0.794627 -0.229304 0.562128 0.102783 -0.571026 0.814472 0.460285 -0.415824 0.784365 
0.154559 -0.323112 0.933654 -0.350848 0.0307565 0.935927 -0.20537 -0.132126 0.969724 
-0.0988163 0.109321 0.989083 0.183723 0.205096 0.961344 0.48367 0.3345 0.80881 
0.450502 0.335268 0.827432 0.494052 0.310238 0.812198 -0.270912 -0.184286 0.944799 
-0.309521 -0.144083 0.939913 0.210749 -0.419183 0.883103 0.254134 -0.467523 0.846663 
0.336393 -0.317857 0.886457 -0.370514 -0.802015 0.4685 0.154062 -0.972048 0.177166 
0.769812 -0.592613 0.237066 -0.642366 -0.265674 0.718877 -0.695345 -0.258211 0.670688 
0.169232 -0.385232 0.90717 0.751689 -0.41963 0.508797 0.667537 -0.420602 0.6144 
-0.610106 -0.17974 0.771663 -0.604386 -0.331525 0.724437 -0.208463 0.240462 0.948009 
0.0465692 0.369588 0.928028 0.345575 0.483393 0.804307 0.649901 0.402612 0.644618 
-0.053825 -0.0447885 0.997545 0.283338 -0.452247 0.845691 -0.665768 -0.321587 0.673302 
-0.576316 -0.432396 0.693465 -0.202061 -0.375724 0.904435 0.945015 -0.0176911 -0.326549 
-0.757736 -0.442524 0.479592 -0.780524 -0.624608 0.0254496 0.654082 0.484232 0.581116 
0.750736 0.413994 0.514787 0.880293 0.360224 0.308743 -0.750385 0.507558 0.423447 
-0.788888 0.516818 0.332499 -0.863897 0.451323 0.223584 -0.21932 0.594064 0.773942 
0.502469 0.463504 0.729855 0.301305 0.10724 0.947478 0.914881 -0.02408 0.403006 
-0.51791 -0.641894 0.565457 0.552806 -0.105184 -0.826645 0.446372 -0.293179 -0.845457 
0.499475 -0.151041 -0.85306 -0.565394 0.620229 0.543733 0.507401 -0.130781 -0.851728 
-0.862121 0.33811 -0.377397 -0.665111 -0.734775 -0.133164 -0.705967 -0.706924 0.0432304 
-0.68573 -0.705522 -0.17892 0.985551 -0.030309 0.166646 -0.747965 -0.241652 0.618185 
-0.945971 -0.210487 0.246646 0.931175 -0.358459 0.0664833 0.503351 -0.157863 -0.84954 
-0.445366 -0.66952 -0.594468 -0.759204 -0.59359 -0.266947 -0.812773 -0.509006 -0.283394 
-0.870905 -0.46119 -0.169788 -0.766093 -0.508473 -0.393138 0.690753 -0.453901 0.562881 
0.830152 -0.542265 0.129598 -0.812138 -0.515438 0.273414 -0.326432 -0.939087 0.107506 
0.388984 -0.904304 -0.175854 0.921546 -0.388137 0.0101573 -0.446284 -0.848093 -0.285602 
-0.271018 -0.958857 -0.0845179 0.0623177 -0.876615 -0.477141 0.152973 -0.899688 -0.408852 
0.73462 -0.673519 0.081884 0.00219941 -0.98722 -0.159346 0.118521 -0.896435 -0.427033 
-0.123274 0.481923 0.867498 -0.122698 0.48541 0.865634 -0.135981 0.481865 0.86563 
-0.0380114 0.457589 0.888351 -0.33749 0.475719 0.812276 -0.339949 0.519888 0.783678 
-0.405324 0.480778 0.777538 -0.0799916 0.421998 0.903061 -0.103218 0.544145 0.832618 
-0 0.34128 0.939962 -0.0167922 0.468463 0.883324 0.103822 0.310466 0.944898 
0.0928162 0.451961 0.887196 0.400146 0.264495 0.877454 0.384072 0.317492 0.866999 
0.444885 0.249436 0.860151 -0.422242 0.256894 0.86932 -0.415175 0.33357 0.846381 
-0.494152 0.236612 0.836557 -0.0321696 0.204869 0.978261 0.0598612 0.408125 0.910961 
0.189685 0.0353337 0.981209 0.386184 -0.118205 0.914817 0.376056 -0.0080199 0.926562 
0.398416 -0.114525 0.910027 -0.272518 0.0104993 0.962093 -0.616681 0.0444725 0.785956 
0.0354385 -0.0653646 0.997232 0.102022 -0.234574 0.96673 0.14679 -0.332923 0.931459 
0.440144 -0.331971 0.834307 0.468812 -0.332168 0.818462 -0.445593 -0.0605365 0.893187 
-0.591414 -0.0712497 0.803214 0.107812 -0.0373218 0.993471 0.394955 -0.0354565 0.918016 
0.394405 -0.0507708 0.917533 0.386993 -0.119945 0.914248 -0.233323 -0.404757 0.884156 
-0.348043 -0.366686 0.862791 0.17025 -0.437104 0.88315 0.227451 -0.469099 0.853354 
0.234093 -0.422268 0.875723 0.181446 -0.470158 0.863729 0.437739 -0.361426 0.823259 
-0.50719 -0.219994 0.833283 -0.517083 -0.211376 0.829425 -0.0618563 -0.20731 0.976318 
0.283315 0.0239372 0.958728 0.33343 0.0631511 0.940657 -0.203301 -0.415693 0.886492 
0.159564 -0.442704 0.882356 -0.471987 -0.160885 0.866801 -0.144013 -0.0481016 0.988406 
-0.129472 -0.0869102 0.987767 0.0647451 -0.18877 0.979885 0.199648 -0.138242 0.970067 
-0.154261 0.726215 0.669937 -0.146539 0.738757 0.657849 -0.169515 0.722238 0.67055 
0.395619 0.783486 0.479203 0.395754 0.783573 0.478949 0.396298 0.783455 0.478692 
-0.720714 0.255395 0.644472 -0.717747 0.290829 0.632659 -0.749873 0.24462 0.614696 
-0.184223 0.520383 0.833825 -0.0965978 0.635807 0.76578 0.116764 0.622208 0.774095 
0.139602 0.652646 0.74469 0.104681 0.523083 0.845829 0.00841096 0.551507 0.834128 
0.0884582 0.360827 0.928428 -0.120554 0.24217 0.962715 0.252298 0.259533 0.932195 
0.315761 0.168469 0.933763 0.17187 -0.115819 0.978288 -0.320435 0.492233 0.809338 
-0.298639 0.509886 0.806741 -0.323073 0.510066 0.797155 -0.184506 0.512421 0.838679 
-0.14715 0.595679 0.789629 -0.230281 0.626775 0.744395 -0.218035 0.657123 0.721561 
-0.249697 0.706633 0.662058 0.919488 0.385882 -0.0750827 -0.869899 -0.250603 0.424822 
-0.873388 -0.265609 0.408223 0.351792 0.466238 0.811705 0.190812 0.213892 0.95804 
0.209599 0.209599 0.955058 0.392217 0.252699 0.884483 0.385428 0.396591 0.833164 
0.405375 0.383539 0.8298 -0.382032 0.435316 0.8152 -0.37066 0.433346 0.821476 
-0.385535 0.421299 0.820896 -0.208293 0.496808 0.842494 -0.269655 0.52942 0.804363 
-0.207361 0.292527 0.933504 -0.383545 0.264646 0.884791 0.857271 -0.247823 -0.451298 
-0.875982 -0.2738 0.397101 -0.924361 -0.3432 -0.166646 0.366691 0.158738 0.916701 
0.0373197 0.193716 0.980348 0.0848447 0.472835 0.877057 0.451411 0.458348 0.765601 
0.428077 0.565657 0.704827 0.480468 0.51915 0.706848 -0.417228 0.46144 0.782939 
-0.486608 0.457131 0.744475 -0.0817562 0.48265 0.871989 -0.0672067 0.34562 0.935965 
-0.510937 0.179899 0.840583 0.723832 -0.287682 -0.627142 -0.928068 -0.0164053 -0.37205 
0.404336 0.146782 0.902756 -0.169238 0.338021 0.925797 0.51953 0.49422 0.697019 
0.489846 0.510044 0.70704 0.381106 0.501423 0.776745 -0.30093 0.387129 0.871535 
-0.280677 0.39524 0.874646 -0.247769 0.356119 0.900994 -0.454056 0.419016 0.786294 
-0.452497 0.487903 0.746456 0.73557 -0.207419 -0.644914 -0.978618 0.171443 -0.113642 
0.153992 0.0184394 0.9879 0.485376 0.353118 0.799824 0.30284 0.42918 0.850936 
0.34762 0.330588 0.877424 0.253121 0.116606 0.960382 0.220548 0.180354 0.958557 
0.210147 0.0611548 0.975755 -0.0776099 -0.0175206 0.99683 -0.0793388 0.0331809 0.996295 
-0.0790983 -0.0208225 0.996649 -0.120263 0.0105434 0.992686 -0.386579 0.112666 0.915349 
-0.181598 0.0463941 0.982278 -0.491411 0.0813001 0.867125 -0.0465481 -0.334263 0.94133 
0.830824 -0.512792 -0.216277 0.512591 -0.459981 -0.72503 0.685267 -0.246984 -0.685134 
-0.968394 -0.0324109 0.247309 -0.175358 -0.287239 0.94167 0.562957 0.160179 0.810816 